+ 1 0 2 tcp 40 ------- 0 0.0 3.0 0 0
- 1 0 2 tcp 40 ------- 0 0.0 3.0 0 0
+ 1 1 2 tcp 40 ------- 0 1.0 3.1 0 1
- 1 1 2 tcp 40 ------- 0 1.0 3.1 0 1
r 1.01016 0 2 tcp 40 ------- 0 0.0 3.0 0 0
+ 1.01016 2 3 tcp 40 ------- 0 0.0 3.0 0 0
- 1.01016 2 3 tcp 40 ------- 0 0.0 3.0 0 0
r 1.01016 1 2 tcp 40 ------- 0 1.0 3.1 0 1
+ 1.01016 2 3 tcp 40 ------- 0 1.0 3.1 0 1
- 1.010348 2 3 tcp 40 ------- 0 1.0 3.1 0 1
r 1.030348 2 3 tcp 40 ------- 0 0.0 3.0 0 0
+ 1.030348 3 2 ack 40 ------- 0 3.0 0.0 0 2
- 1.030348 3 2 ack 40 ------- 0 3.0 0.0 0 2
r 1.030536 2 3 tcp 40 ------- 0 1.0 3.1 0 1
+ 1.030536 3 2 ack 40 ------- 0 3.1 1.0 0 3
- 1.030536 3 2 ack 40 ------- 0 3.1 1.0 0 3
r 1.050536 3 2 ack 40 ------- 0 3.0 0.0 0 2
+ 1.050536 2 0 ack 40 ------- 0 3.0 0.0 0 2
- 1.050536 2 0 ack 40 ------- 0 3.0 0.0 0 2
r 1.050725 3 2 ack 40 ------- 0 3.1 1.0 0 3
+ 1.050725 2 1 ack 40 ------- 0 3.1 1.0 0 3
- 1.050725 2 1 ack 40 ------- 0 3.1 1.0 0 3
r 1.060696 2 0 ack 40 ------- 0 3.0 0.0 0 2
+ 1.060696 0 2 tcp 1040 ------- 0 0.0 3.0 1 4
- 1.060696 0 2 tcp 1040 ------- 0 0.0 3.0 1 4
+ 1.060696 0 2 tcp 1040 ------- 0 0.0 3.0 2 5
r 1.060885 2 1 ack 40 ------- 0 3.1 1.0 0 3
+ 1.060885 1 2 tcp 1040 ------- 0 1.0 3.1 1 6
- 1.060885 1 2 tcp 1040 ------- 0 1.0 3.1 1 6
+ 1.060885 1 2 tcp 1040 ------- 0 1.0 3.1 2 7
- 1.064856 0 2 tcp 1040 ------- 0 0.0 3.0 2 5
- 1.065045 1 2 tcp 1040 ------- 0 1.0 3.1 2 7
r 1.074856 0 2 tcp 1040 ------- 0 0.0 3.0 1 4
+ 1.074856 2 3 tcp 1040 ------- 0 0.0 3.0 1 4
- 1.074856 2 3 tcp 1040 ------- 0 0.0 3.0 1 4
r 1.075045 1 2 tcp 1040 ------- 0 1.0 3.1 1 6
+ 1.075045 2 3 tcp 1040 ------- 0 1.0 3.1 1 6
r 1.079016 0 2 tcp 1040 ------- 0 0.0 3.0 2 5
+ 1.079016 2 3 tcp 1040 ------- 0 0.0 3.0 2 5
r 1.079205 1 2 tcp 1040 ------- 0 1.0 3.1 2 7
+ 1.079205 2 3 tcp 1040 ------- 0 1.0 3.1 2 7
- 1.079751 2 3 tcp 1040 ------- 0 1.0 3.1 1 6
- 1.084645 2 3 tcp 1040 ------- 0 0.0 3.0 2 5
- 1.089539 2 3 tcp 1040 ------- 0 1.0 3.1 2 7
r 1.099751 2 3 tcp 1040 ------- 0 0.0 3.0 1 4
+ 1.099751 3 2 ack 40 ------- 0 3.0 0.0 1 8
- 1.099751 3 2 ack 40 ------- 0 3.0 0.0 1 8
r 1.104645 2 3 tcp 1040 ------- 0 1.0 3.1 1 6
+ 1.104645 3 2 ack 40 ------- 0 3.1 1.0 1 9
- 1.104645 3 2 ack 40 ------- 0 3.1 1.0 1 9
r 1.109539 2 3 tcp 1040 ------- 0 0.0 3.0 2 5
+ 1.109539 3 2 ack 40 ------- 0 3.0 0.0 2 10
- 1.109539 3 2 ack 40 ------- 0 3.0 0.0 2 10
r 1.114433 2 3 tcp 1040 ------- 0 1.0 3.1 2 7
+ 1.114433 3 2 ack 40 ------- 0 3.1 1.0 2 11
- 1.114433 3 2 ack 40 ------- 0 3.1 1.0 2 11
r 1.119939 3 2 ack 40 ------- 0 3.0 0.0 1 8
+ 1.119939 2 0 ack 40 ------- 0 3.0 0.0 1 8
- 1.119939 2 0 ack 40 ------- 0 3.0 0.0 1 8
r 1.124833 3 2 ack 40 ------- 0 3.1 1.0 1 9
+ 1.124833 2 1 ack 40 ------- 0 3.1 1.0 1 9
- 1.124833 2 1 ack 40 ------- 0 3.1 1.0 1 9
r 1.129727 3 2 ack 40 ------- 0 3.0 0.0 2 10
+ 1.129727 2 0 ack 40 ------- 0 3.0 0.0 2 10
- 1.129727 2 0 ack 40 ------- 0 3.0 0.0 2 10
r 1.130099 2 0 ack 40 ------- 0 3.0 0.0 1 8
+ 1.130099 0 2 tcp 1040 ------- 0 0.0 3.0 3 12
- 1.130099 0 2 tcp 1040 ------- 0 0.0 3.0 3 12
+ 1.130099 0 2 tcp 1040 ------- 0 0.0 3.0 4 13
- 1.134259 0 2 tcp 1040 ------- 0 0.0 3.0 4 13
r 1.134621 3 2 ack 40 ------- 0 3.1 1.0 2 11
+ 1.134621 2 1 ack 40 ------- 0 3.1 1.0 2 11
- 1.134621 2 1 ack 40 ------- 0 3.1 1.0 2 11
r 1.134993 2 1 ack 40 ------- 0 3.1 1.0 1 9
+ 1.134993 1 2 tcp 1040 ------- 0 1.0 3.1 3 14
- 1.134993 1 2 tcp 1040 ------- 0 1.0 3.1 3 14
+ 1.134993 1 2 tcp 1040 ------- 0 1.0 3.1 4 15
- 1.139153 1 2 tcp 1040 ------- 0 1.0 3.1 4 15
r 1.139887 2 0 ack 40 ------- 0 3.0 0.0 2 10
+ 1.139887 0 2 tcp 1040 ------- 0 0.0 3.0 5 16
- 1.139887 0 2 tcp 1040 ------- 0 0.0 3.0 5 16
+ 1.139887 0 2 tcp 1040 ------- 0 0.0 3.0 6 17
- 1.144047 0 2 tcp 1040 ------- 0 0.0 3.0 6 17
r 1.144259 0 2 tcp 1040 ------- 0 0.0 3.0 3 12
+ 1.144259 2 3 tcp 1040 ------- 0 0.0 3.0 3 12
- 1.144259 2 3 tcp 1040 ------- 0 0.0 3.0 3 12
r 1.144781 2 1 ack 40 ------- 0 3.1 1.0 2 11
+ 1.144781 1 2 tcp 1040 ------- 0 1.0 3.1 5 18
- 1.144781 1 2 tcp 1040 ------- 0 1.0 3.1 5 18
+ 1.144781 1 2 tcp 1040 ------- 0 1.0 3.1 6 19
r 1.148419 0 2 tcp 1040 ------- 0 0.0 3.0 4 13
+ 1.148419 2 3 tcp 1040 ------- 0 0.0 3.0 4 13
- 1.148941 1 2 tcp 1040 ------- 0 1.0 3.1 6 19
r 1.149153 1 2 tcp 1040 ------- 0 1.0 3.1 3 14
+ 1.149153 2 3 tcp 1040 ------- 0 1.0 3.1 3 14
- 1.149153 2 3 tcp 1040 ------- 0 0.0 3.0 4 13
r 1.153313 1 2 tcp 1040 ------- 0 1.0 3.1 4 15
+ 1.153313 2 3 tcp 1040 ------- 0 1.0 3.1 4 15
r 1.154047 0 2 tcp 1040 ------- 0 0.0 3.0 5 16
+ 1.154047 2 3 tcp 1040 ------- 0 0.0 3.0 5 16
- 1.154047 2 3 tcp 1040 ------- 0 1.0 3.1 3 14
r 1.158207 0 2 tcp 1040 ------- 0 0.0 3.0 6 17
+ 1.158207 2 3 tcp 1040 ------- 0 0.0 3.0 6 17
r 1.158941 1 2 tcp 1040 ------- 0 1.0 3.1 5 18
+ 1.158941 2 3 tcp 1040 ------- 0 1.0 3.1 5 18
- 1.158941 2 3 tcp 1040 ------- 0 1.0 3.1 4 15
r 1.163101 1 2 tcp 1040 ------- 0 1.0 3.1 6 19
+ 1.163101 2 3 tcp 1040 ------- 0 1.0 3.1 6 19
- 1.163835 2 3 tcp 1040 ------- 0 0.0 3.0 5 16
- 1.168729 2 3 tcp 1040 ------- 0 0.0 3.0 6 17
r 1.169153 2 3 tcp 1040 ------- 0 0.0 3.0 3 12
+ 1.169153 3 2 ack 40 ------- 0 3.0 0.0 3 20
- 1.169153 3 2 ack 40 ------- 0 3.0 0.0 3 20
- 1.173624 2 3 tcp 1040 ------- 0 1.0 3.1 5 18
r 1.174047 2 3 tcp 1040 ------- 0 0.0 3.0 4 13
+ 1.174047 3 2 ack 40 ------- 0 3.0 0.0 4 21
- 1.174047 3 2 ack 40 ------- 0 3.0 0.0 4 21
- 1.178518 2 3 tcp 1040 ------- 0 1.0 3.1 6 19
r 1.178941 2 3 tcp 1040 ------- 0 1.0 3.1 3 14
+ 1.178941 3 2 ack 40 ------- 0 3.1 1.0 3 22
- 1.178941 3 2 ack 40 ------- 0 3.1 1.0 3 22
r 1.183835 2 3 tcp 1040 ------- 0 1.0 3.1 4 15
+ 1.183835 3 2 ack 40 ------- 0 3.1 1.0 4 23
- 1.183835 3 2 ack 40 ------- 0 3.1 1.0 4 23
r 1.188729 2 3 tcp 1040 ------- 0 0.0 3.0 5 16
+ 1.188729 3 2 ack 40 ------- 0 3.0 0.0 5 24
- 1.188729 3 2 ack 40 ------- 0 3.0 0.0 5 24
r 1.189341 3 2 ack 40 ------- 0 3.0 0.0 3 20
+ 1.189341 2 0 ack 40 ------- 0 3.0 0.0 3 20
- 1.189341 2 0 ack 40 ------- 0 3.0 0.0 3 20
r 1.193624 2 3 tcp 1040 ------- 0 0.0 3.0 6 17
+ 1.193624 3 2 ack 40 ------- 0 3.0 0.0 6 25
- 1.193624 3 2 ack 40 ------- 0 3.0 0.0 6 25
r 1.194235 3 2 ack 40 ------- 0 3.0 0.0 4 21
+ 1.194235 2 0 ack 40 ------- 0 3.0 0.0 4 21
- 1.194235 2 0 ack 40 ------- 0 3.0 0.0 4 21
r 1.198518 2 3 tcp 1040 ------- 0 1.0 3.1 5 18
+ 1.198518 3 2 ack 40 ------- 0 3.1 1.0 5 26
- 1.198518 3 2 ack 40 ------- 0 3.1 1.0 5 26
r 1.199129 3 2 ack 40 ------- 0 3.1 1.0 3 22
+ 1.199129 2 1 ack 40 ------- 0 3.1 1.0 3 22
- 1.199129 2 1 ack 40 ------- 0 3.1 1.0 3 22
r 1.199501 2 0 ack 40 ------- 0 3.0 0.0 3 20
+ 1.199501 0 2 tcp 1040 ------- 0 0.0 3.0 7 27
- 1.199501 0 2 tcp 1040 ------- 0 0.0 3.0 7 27
+ 1.199501 0 2 tcp 1040 ------- 0 0.0 3.0 8 28
r 1.203412 2 3 tcp 1040 ------- 0 1.0 3.1 6 19
+ 1.203412 3 2 ack 40 ------- 0 3.1 1.0 6 29
- 1.203412 3 2 ack 40 ------- 0 3.1 1.0 6 29
- 1.203661 0 2 tcp 1040 ------- 0 0.0 3.0 8 28
r 1.204024 3 2 ack 40 ------- 0 3.1 1.0 4 23
+ 1.204024 2 1 ack 40 ------- 0 3.1 1.0 4 23
- 1.204024 2 1 ack 40 ------- 0 3.1 1.0 4 23
r 1.204395 2 0 ack 40 ------- 0 3.0 0.0 4 21
+ 1.204395 0 2 tcp 1040 ------- 0 0.0 3.0 9 30
+ 1.204395 0 2 tcp 1040 ------- 0 0.0 3.0 10 31
- 1.207821 0 2 tcp 1040 ------- 0 0.0 3.0 9 30
r 1.208918 3 2 ack 40 ------- 0 3.0 0.0 5 24
+ 1.208918 2 0 ack 40 ------- 0 3.0 0.0 5 24
- 1.208918 2 0 ack 40 ------- 0 3.0 0.0 5 24
r 1.209289 2 1 ack 40 ------- 0 3.1 1.0 3 22
+ 1.209289 1 2 tcp 1040 ------- 0 1.0 3.1 7 32
- 1.209289 1 2 tcp 1040 ------- 0 1.0 3.1 7 32
+ 1.209289 1 2 tcp 1040 ------- 0 1.0 3.1 8 33
- 1.211981 0 2 tcp 1040 ------- 0 0.0 3.0 10 31
- 1.213449 1 2 tcp 1040 ------- 0 1.0 3.1 8 33
r 1.213661 0 2 tcp 1040 ------- 0 0.0 3.0 7 27
+ 1.213661 2 3 tcp 1040 ------- 0 0.0 3.0 7 27
- 1.213661 2 3 tcp 1040 ------- 0 0.0 3.0 7 27
r 1.213812 3 2 ack 40 ------- 0 3.0 0.0 6 25
+ 1.213812 2 0 ack 40 ------- 0 3.0 0.0 6 25
- 1.213812 2 0 ack 40 ------- 0 3.0 0.0 6 25
r 1.214184 2 1 ack 40 ------- 0 3.1 1.0 4 23
+ 1.214184 1 2 tcp 1040 ------- 0 1.0 3.1 9 34
+ 1.214184 1 2 tcp 1040 ------- 0 1.0 3.1 10 35
- 1.217609 1 2 tcp 1040 ------- 0 1.0 3.1 9 34
r 1.217821 0 2 tcp 1040 ------- 0 0.0 3.0 8 28
+ 1.217821 2 3 tcp 1040 ------- 0 0.0 3.0 8 28
- 1.218555 2 3 tcp 1040 ------- 0 0.0 3.0 8 28
r 1.218706 3 2 ack 40 ------- 0 3.1 1.0 5 26
+ 1.218706 2 1 ack 40 ------- 0 3.1 1.0 5 26
- 1.218706 2 1 ack 40 ------- 0 3.1 1.0 5 26
r 1.219078 2 0 ack 40 ------- 0 3.0 0.0 5 24
+ 1.219078 0 2 tcp 1040 ------- 0 0.0 3.0 11 36
- 1.219078 0 2 tcp 1040 ------- 0 0.0 3.0 11 36
+ 1.219078 0 2 tcp 1040 ------- 0 0.0 3.0 12 37
- 1.221769 1 2 tcp 1040 ------- 0 1.0 3.1 10 35
r 1.221981 0 2 tcp 1040 ------- 0 0.0 3.0 9 30
+ 1.221981 2 3 tcp 1040 ------- 0 0.0 3.0 9 30
- 1.223238 0 2 tcp 1040 ------- 0 0.0 3.0 12 37
r 1.223449 1 2 tcp 1040 ------- 0 1.0 3.1 7 32
+ 1.223449 2 3 tcp 1040 ------- 0 1.0 3.1 7 32
- 1.223449 2 3 tcp 1040 ------- 0 0.0 3.0 9 30
r 1.2236 3 2 ack 40 ------- 0 3.1 1.0 6 29
+ 1.2236 2 1 ack 40 ------- 0 3.1 1.0 6 29
- 1.2236 2 1 ack 40 ------- 0 3.1 1.0 6 29
r 1.223972 2 0 ack 40 ------- 0 3.0 0.0 6 25
+ 1.223972 0 2 tcp 1040 ------- 0 0.0 3.0 13 38
+ 1.223972 0 2 tcp 1040 ------- 0 0.0 3.0 14 39
r 1.226141 0 2 tcp 1040 ------- 0 0.0 3.0 10 31
+ 1.226141 2 3 tcp 1040 ------- 0 0.0 3.0 10 31
- 1.227398 0 2 tcp 1040 ------- 0 0.0 3.0 13 38
r 1.227609 1 2 tcp 1040 ------- 0 1.0 3.1 8 33
+ 1.227609 2 3 tcp 1040 ------- 0 1.0 3.1 8 33
- 1.228344 2 3 tcp 1040 ------- 0 1.0 3.1 7 32
r 1.228866 2 1 ack 40 ------- 0 3.1 1.0 5 26
+ 1.228866 1 2 tcp 1040 ------- 0 1.0 3.1 11 40
- 1.228866 1 2 tcp 1040 ------- 0 1.0 3.1 11 40
+ 1.228866 1 2 tcp 1040 ------- 0 1.0 3.1 12 41
- 1.231558 0 2 tcp 1040 ------- 0 0.0 3.0 14 39
r 1.231769 1 2 tcp 1040 ------- 0 1.0 3.1 9 34
+ 1.231769 2 3 tcp 1040 ------- 0 1.0 3.1 9 34
- 1.233026 1 2 tcp 1040 ------- 0 1.0 3.1 12 41
r 1.233238 0 2 tcp 1040 ------- 0 0.0 3.0 11 36
+ 1.233238 2 3 tcp 1040 ------- 0 0.0 3.0 11 36
- 1.233238 2 3 tcp 1040 ------- 0 0.0 3.0 10 31
r 1.23376 2 1 ack 40 ------- 0 3.1 1.0 6 29
+ 1.23376 1 2 tcp 1040 ------- 0 1.0 3.1 13 42
+ 1.23376 1 2 tcp 1040 ------- 0 1.0 3.1 14 43
r 1.235929 1 2 tcp 1040 ------- 0 1.0 3.1 10 35
+ 1.235929 2 3 tcp 1040 ------- 0 1.0 3.1 10 35
- 1.237186 1 2 tcp 1040 ------- 0 1.0 3.1 13 42
r 1.237398 0 2 tcp 1040 ------- 0 0.0 3.0 12 37
+ 1.237398 2 3 tcp 1040 ------- 0 0.0 3.0 12 37
- 1.238132 2 3 tcp 1040 ------- 0 1.0 3.1 8 33
r 1.238555 2 3 tcp 1040 ------- 0 0.0 3.0 7 27
+ 1.238555 3 2 ack 40 ------- 0 3.0 0.0 7 44
- 1.238555 3 2 ack 40 ------- 0 3.0 0.0 7 44
- 1.241346 1 2 tcp 1040 ------- 0 1.0 3.1 14 43
r 1.241558 0 2 tcp 1040 ------- 0 0.0 3.0 13 38
+ 1.241558 2 3 tcp 1040 ------- 0 0.0 3.0 13 38
r 1.243026 1 2 tcp 1040 ------- 0 1.0 3.1 11 40
+ 1.243026 2 3 tcp 1040 ------- 0 1.0 3.1 11 40
- 1.243026 2 3 tcp 1040 ------- 0 1.0 3.1 9 34
r 1.243449 2 3 tcp 1040 ------- 0 0.0 3.0 8 28
+ 1.243449 3 2 ack 40 ------- 0 3.0 0.0 8 45
- 1.243449 3 2 ack 40 ------- 0 3.0 0.0 8 45
r 1.245718 0 2 tcp 1040 ------- 0 0.0 3.0 14 39
+ 1.245718 2 3 tcp 1040 ------- 0 0.0 3.0 14 39
r 1.247186 1 2 tcp 1040 ------- 0 1.0 3.1 12 41
+ 1.247186 2 3 tcp 1040 ------- 0 1.0 3.1 12 41
- 1.24792 2 3 tcp 1040 ------- 0 0.0 3.0 11 36
r 1.248344 2 3 tcp 1040 ------- 0 0.0 3.0 9 30
+ 1.248344 3 2 ack 40 ------- 0 3.0 0.0 9 46
- 1.248344 3 2 ack 40 ------- 0 3.0 0.0 9 46
r 1.251346 1 2 tcp 1040 ------- 0 1.0 3.1 13 42
+ 1.251346 2 3 tcp 1040 ------- 0 1.0 3.1 13 42
- 1.252814 2 3 tcp 1040 ------- 0 1.0 3.1 10 35
r 1.253238 2 3 tcp 1040 ------- 0 1.0 3.1 7 32
+ 1.253238 3 2 ack 40 ------- 0 3.1 1.0 7 47
- 1.253238 3 2 ack 40 ------- 0 3.1 1.0 7 47
r 1.255506 1 2 tcp 1040 ------- 0 1.0 3.1 14 43
+ 1.255506 2 3 tcp 1040 ------- 0 1.0 3.1 14 43
- 1.257708 2 3 tcp 1040 ------- 0 0.0 3.0 12 37
r 1.258132 2 3 tcp 1040 ------- 0 0.0 3.0 10 31
+ 1.258132 3 2 ack 40 ------- 0 3.0 0.0 10 48
- 1.258132 3 2 ack 40 ------- 0 3.0 0.0 10 48
r 1.258744 3 2 ack 40 ------- 0 3.0 0.0 7 44
+ 1.258744 2 0 ack 40 ------- 0 3.0 0.0 7 44
- 1.258744 2 0 ack 40 ------- 0 3.0 0.0 7 44
- 1.262602 2 3 tcp 1040 ------- 0 0.0 3.0 13 38
r 1.263026 2 3 tcp 1040 ------- 0 1.0 3.1 8 33
+ 1.263026 3 2 ack 40 ------- 0 3.1 1.0 8 49
- 1.263026 3 2 ack 40 ------- 0 3.1 1.0 8 49
r 1.263638 3 2 ack 40 ------- 0 3.0 0.0 8 45
+ 1.263638 2 0 ack 40 ------- 0 3.0 0.0 8 45
- 1.263638 2 0 ack 40 ------- 0 3.0 0.0 8 45
- 1.267496 2 3 tcp 1040 ------- 0 1.0 3.1 11 40
r 1.26792 2 3 tcp 1040 ------- 0 1.0 3.1 9 34
+ 1.26792 3 2 ack 40 ------- 0 3.1 1.0 9 50
- 1.26792 3 2 ack 40 ------- 0 3.1 1.0 9 50
r 1.268532 3 2 ack 40 ------- 0 3.0 0.0 9 46
+ 1.268532 2 0 ack 40 ------- 0 3.0 0.0 9 46
- 1.268532 2 0 ack 40 ------- 0 3.0 0.0 9 46
r 1.268904 2 0 ack 40 ------- 0 3.0 0.0 7 44
+ 1.268904 0 2 tcp 1040 ------- 0 0.0 3.0 15 51
- 1.268904 0 2 tcp 1040 ------- 0 0.0 3.0 15 51
+ 1.268904 0 2 tcp 1040 ------- 0 0.0 3.0 16 52
- 1.272391 2 3 tcp 1040 ------- 0 0.0 3.0 14 39
r 1.272814 2 3 tcp 1040 ------- 0 0.0 3.0 11 36
+ 1.272814 3 2 ack 40 ------- 0 3.0 0.0 11 53
- 1.272814 3 2 ack 40 ------- 0 3.0 0.0 11 53
- 1.273064 0 2 tcp 1040 ------- 0 0.0 3.0 16 52
r 1.273426 3 2 ack 40 ------- 0 3.1 1.0 7 47
+ 1.273426 2 1 ack 40 ------- 0 3.1 1.0 7 47
- 1.273426 2 1 ack 40 ------- 0 3.1 1.0 7 47
r 1.273798 2 0 ack 40 ------- 0 3.0 0.0 8 45
+ 1.273798 0 2 tcp 1040 ------- 0 0.0 3.0 17 54
+ 1.273798 0 2 tcp 1040 ------- 0 0.0 3.0 18 55
- 1.277224 0 2 tcp 1040 ------- 0 0.0 3.0 17 54
- 1.277285 2 3 tcp 1040 ------- 0 1.0 3.1 12 41
r 1.277708 2 3 tcp 1040 ------- 0 1.0 3.1 10 35
+ 1.277708 3 2 ack 40 ------- 0 3.1 1.0 10 56
- 1.277708 3 2 ack 40 ------- 0 3.1 1.0 10 56
r 1.27832 3 2 ack 40 ------- 0 3.0 0.0 10 48
+ 1.27832 2 0 ack 40 ------- 0 3.0 0.0 10 48
- 1.27832 2 0 ack 40 ------- 0 3.0 0.0 10 48
r 1.278692 2 0 ack 40 ------- 0 3.0 0.0 9 46
+ 1.278692 0 2 tcp 1040 ------- 0 0.0 3.0 19 57
+ 1.278692 0 2 tcp 1040 ------- 0 0.0 3.0 20 58
- 1.281384 0 2 tcp 1040 ------- 0 0.0 3.0 18 55
- 1.282179 2 3 tcp 1040 ------- 0 1.0 3.1 13 42
r 1.282602 2 3 tcp 1040 ------- 0 0.0 3.0 12 37
+ 1.282602 3 2 ack 40 ------- 0 3.0 0.0 12 59
- 1.282602 3 2 ack 40 ------- 0 3.0 0.0 12 59
r 1.283064 0 2 tcp 1040 ------- 0 0.0 3.0 15 51
+ 1.283064 2 3 tcp 1040 ------- 0 0.0 3.0 15 51
r 1.283214 3 2 ack 40 ------- 0 3.1 1.0 8 49
+ 1.283214 2 1 ack 40 ------- 0 3.1 1.0 8 49
- 1.283214 2 1 ack 40 ------- 0 3.1 1.0 8 49
r 1.283586 2 1 ack 40 ------- 0 3.1 1.0 7 47
+ 1.283586 1 2 tcp 1040 ------- 0 1.0 3.1 15 60
- 1.283586 1 2 tcp 1040 ------- 0 1.0 3.1 15 60
+ 1.283586 1 2 tcp 1040 ------- 0 1.0 3.1 16 61
- 1.285544 0 2 tcp 1040 ------- 0 0.0 3.0 19 57
- 1.287073 2 3 tcp 1040 ------- 0 1.0 3.1 14 43
r 1.287224 0 2 tcp 1040 ------- 0 0.0 3.0 16 52
+ 1.287224 2 3 tcp 1040 ------- 0 0.0 3.0 16 52
r 1.287496 2 3 tcp 1040 ------- 0 0.0 3.0 13 38
+ 1.287496 3 2 ack 40 ------- 0 3.0 0.0 13 62
- 1.287496 3 2 ack 40 ------- 0 3.0 0.0 13 62
- 1.287746 1 2 tcp 1040 ------- 0 1.0 3.1 16 61
r 1.288108 3 2 ack 40 ------- 0 3.1 1.0 9 50
+ 1.288108 2 1 ack 40 ------- 0 3.1 1.0 9 50
- 1.288108 2 1 ack 40 ------- 0 3.1 1.0 9 50
r 1.28848 2 0 ack 40 ------- 0 3.0 0.0 10 48
+ 1.28848 0 2 tcp 1040 ------- 0 0.0 3.0 21 63
+ 1.28848 0 2 tcp 1040 ------- 0 0.0 3.0 22 64
- 1.289704 0 2 tcp 1040 ------- 0 0.0 3.0 20 58
r 1.291384 0 2 tcp 1040 ------- 0 0.0 3.0 17 54
+ 1.291384 2 3 tcp 1040 ------- 0 0.0 3.0 17 54
- 1.291967 2 3 tcp 1040 ------- 0 0.0 3.0 15 51
r 1.292391 2 3 tcp 1040 ------- 0 1.0 3.1 11 40
+ 1.292391 3 2 ack 40 ------- 0 3.1 1.0 11 65
- 1.292391 3 2 ack 40 ------- 0 3.1 1.0 11 65
r 1.293002 3 2 ack 40 ------- 0 3.0 0.0 11 53
+ 1.293002 2 0 ack 40 ------- 0 3.0 0.0 11 53
- 1.293002 2 0 ack 40 ------- 0 3.0 0.0 11 53
r 1.293374 2 1 ack 40 ------- 0 3.1 1.0 8 49
+ 1.293374 1 2 tcp 1040 ------- 0 1.0 3.1 17 66
- 1.293374 1 2 tcp 1040 ------- 0 1.0 3.1 17 66
+ 1.293374 1 2 tcp 1040 ------- 0 1.0 3.1 18 67
- 1.293864 0 2 tcp 1040 ------- 0 0.0 3.0 21 63
r 1.295544 0 2 tcp 1040 ------- 0 0.0 3.0 18 55
+ 1.295544 2 3 tcp 1040 ------- 0 0.0 3.0 18 55
- 1.296861 2 3 tcp 1040 ------- 0 0.0 3.0 16 52
r 1.297285 2 3 tcp 1040 ------- 0 0.0 3.0 14 39
+ 1.297285 3 2 ack 40 ------- 0 3.0 0.0 14 68
- 1.297285 3 2 ack 40 ------- 0 3.0 0.0 14 68
- 1.297534 1 2 tcp 1040 ------- 0 1.0 3.1 18 67
r 1.297746 1 2 tcp 1040 ------- 0 1.0 3.1 15 60
+ 1.297746 2 3 tcp 1040 ------- 0 1.0 3.1 15 60
r 1.297896 3 2 ack 40 ------- 0 3.1 1.0 10 56
+ 1.297896 2 1 ack 40 ------- 0 3.1 1.0 10 56
- 1.297896 2 1 ack 40 ------- 0 3.1 1.0 10 56
- 1.298024 0 2 tcp 1040 ------- 0 0.0 3.0 22 64
r 1.298268 2 1 ack 40 ------- 0 3.1 1.0 9 50
+ 1.298268 1 2 tcp 1040 ------- 0 1.0 3.1 19 69
+ 1.298268 1 2 tcp 1040 ------- 0 1.0 3.1 20 70
r 1.299704 0 2 tcp 1040 ------- 0 0.0 3.0 19 57
+ 1.299704 2 3 tcp 1040 ------- 0 0.0 3.0 19 57
- 1.301694 1 2 tcp 1040 ------- 0 1.0 3.1 19 69
- 1.301755 2 3 tcp 1040 ------- 0 0.0 3.0 17 54
r 1.301906 1 2 tcp 1040 ------- 0 1.0 3.1 16 61
+ 1.301906 2 3 tcp 1040 ------- 0 1.0 3.1 16 61
r 1.302179 2 3 tcp 1040 ------- 0 1.0 3.1 12 41
+ 1.302179 3 2 ack 40 ------- 0 3.1 1.0 12 71
- 1.302179 3 2 ack 40 ------- 0 3.1 1.0 12 71
r 1.302791 3 2 ack 40 ------- 0 3.0 0.0 12 59
+ 1.302791 2 0 ack 40 ------- 0 3.0 0.0 12 59
- 1.302791 2 0 ack 40 ------- 0 3.0 0.0 12 59
r 1.303162 2 0 ack 40 ------- 0 3.0 0.0 11 53
+ 1.303162 0 2 tcp 1040 ------- 0 0.0 3.0 23 72
- 1.303162 0 2 tcp 1040 ------- 0 0.0 3.0 23 72
+ 1.303162 0 2 tcp 1040 ------- 0 0.0 3.0 24 73
r 1.303864 0 2 tcp 1040 ------- 0 0.0 3.0 20 58
+ 1.303864 2 3 tcp 1040 ------- 0 0.0 3.0 20 58
- 1.305854 1 2 tcp 1040 ------- 0 1.0 3.1 20 70
- 1.306649 2 3 tcp 1040 ------- 0 0.0 3.0 18 55
r 1.307073 2 3 tcp 1040 ------- 0 1.0 3.1 13 42
+ 1.307073 3 2 ack 40 ------- 0 3.1 1.0 13 74
- 1.307073 3 2 ack 40 ------- 0 3.1 1.0 13 74
- 1.307322 0 2 tcp 1040 ------- 0 0.0 3.0 24 73
r 1.307534 1 2 tcp 1040 ------- 0 1.0 3.1 17 66
+ 1.307534 2 3 tcp 1040 ------- 0 1.0 3.1 17 66
r 1.307685 3 2 ack 40 ------- 0 3.0 0.0 13 62
+ 1.307685 2 0 ack 40 ------- 0 3.0 0.0 13 62
- 1.307685 2 0 ack 40 ------- 0 3.0 0.0 13 62
r 1.308024 0 2 tcp 1040 ------- 0 0.0 3.0 21 63
+ 1.308024 2 3 tcp 1040 ------- 0 0.0 3.0 21 63
r 1.308056 2 1 ack 40 ------- 0 3.1 1.0 10 56
+ 1.308056 1 2 tcp 1040 ------- 0 1.0 3.1 21 75
+ 1.308056 1 2 tcp 1040 ------- 0 1.0 3.1 22 76
- 1.310014 1 2 tcp 1040 ------- 0 1.0 3.1 21 75
- 1.311544 2 3 tcp 1040 ------- 0 1.0 3.1 15 60
r 1.311694 1 2 tcp 1040 ------- 0 1.0 3.1 18 67
+ 1.311694 2 3 tcp 1040 ------- 0 1.0 3.1 18 67
r 1.311967 2 3 tcp 1040 ------- 0 1.0 3.1 14 43
+ 1.311967 3 2 ack 40 ------- 0 3.1 1.0 14 77
- 1.311967 3 2 ack 40 ------- 0 3.1 1.0 14 77
r 1.312184 0 2 tcp 1040 ------- 0 0.0 3.0 22 64
+ 1.312184 2 3 tcp 1040 ------- 0 0.0 3.0 22 64
r 1.312579 3 2 ack 40 ------- 0 3.1 1.0 11 65
+ 1.312579 2 1 ack 40 ------- 0 3.1 1.0 11 65
- 1.312579 2 1 ack 40 ------- 0 3.1 1.0 11 65
r 1.312951 2 0 ack 40 ------- 0 3.0 0.0 12 59
+ 1.312951 0 2 tcp 1040 ------- 0 0.0 3.0 25 78
- 1.312951 0 2 tcp 1040 ------- 0 0.0 3.0 25 78
+ 1.312951 0 2 tcp 1040 ------- 0 0.0 3.0 26 79
- 1.314174 1 2 tcp 1040 ------- 0 1.0 3.1 22 76
r 1.315854 1 2 tcp 1040 ------- 0 1.0 3.1 19 69
+ 1.315854 2 3 tcp 1040 ------- 0 1.0 3.1 19 69
- 1.316438 2 3 tcp 1040 ------- 0 0.0 3.0 19 57
r 1.316861 2 3 tcp 1040 ------- 0 0.0 3.0 15 51
+ 1.316861 3 2 ack 40 ------- 0 3.0 0.0 15 80
- 1.316861 3 2 ack 40 ------- 0 3.0 0.0 15 80
- 1.317111 0 2 tcp 1040 ------- 0 0.0 3.0 26 79
r 1.317322 0 2 tcp 1040 ------- 0 0.0 3.0 23 72
+ 1.317322 2 3 tcp 1040 ------- 0 0.0 3.0 23 72
r 1.317473 3 2 ack 40 ------- 0 3.0 0.0 14 68
+ 1.317473 2 0 ack 40 ------- 0 3.0 0.0 14 68
- 1.317473 2 0 ack 40 ------- 0 3.0 0.0 14 68
r 1.317845 2 0 ack 40 ------- 0 3.0 0.0 13 62
+ 1.317845 0 2 tcp 1040 ------- 0 0.0 3.0 27 81
+ 1.317845 0 2 tcp 1040 ------- 0 0.0 3.0 28 82
r 1.320014 1 2 tcp 1040 ------- 0 1.0 3.1 20 70
+ 1.320014 2 3 tcp 1040 ------- 0 1.0 3.1 20 70
- 1.321271 0 2 tcp 1040 ------- 0 0.0 3.0 27 81
- 1.321332 2 3 tcp 1040 ------- 0 1.0 3.1 16 61
r 1.321482 0 2 tcp 1040 ------- 0 0.0 3.0 24 73
+ 1.321482 2 3 tcp 1040 ------- 0 0.0 3.0 24 73
r 1.321755 2 3 tcp 1040 ------- 0 0.0 3.0 16 52
+ 1.321755 3 2 ack 40 ------- 0 3.0 0.0 16 83
- 1.321755 3 2 ack 40 ------- 0 3.0 0.0 16 83
r 1.322367 3 2 ack 40 ------- 0 3.1 1.0 12 71
+ 1.322367 2 1 ack 40 ------- 0 3.1 1.0 12 71
- 1.322367 2 1 ack 40 ------- 0 3.1 1.0 12 71
r 1.322739 2 1 ack 40 ------- 0 3.1 1.0 11 65
+ 1.322739 1 2 tcp 1040 ------- 0 1.0 3.1 23 84
- 1.322739 1 2 tcp 1040 ------- 0 1.0 3.1 23 84
+ 1.322739 1 2 tcp 1040 ------- 0 1.0 3.1 24 85
r 1.324174 1 2 tcp 1040 ------- 0 1.0 3.1 21 75
+ 1.324174 2 3 tcp 1040 ------- 0 1.0 3.1 21 75
d 1.324174 2 3 tcp 1040 ------- 0 1.0 3.1 21 75
- 1.325431 0 2 tcp 1040 ------- 0 0.0 3.0 28 82
- 1.326226 2 3 tcp 1040 ------- 0 0.0 3.0 20 58
r 1.326649 2 3 tcp 1040 ------- 0 0.0 3.0 17 54
+ 1.326649 3 2 ack 40 ------- 0 3.0 0.0 17 86
- 1.326649 3 2 ack 40 ------- 0 3.0 0.0 17 86
- 1.326899 1 2 tcp 1040 ------- 0 1.0 3.1 24 85
r 1.327111 0 2 tcp 1040 ------- 0 0.0 3.0 25 78
+ 1.327111 2 3 tcp 1040 ------- 0 0.0 3.0 25 78
r 1.327261 3 2 ack 40 ------- 0 3.1 1.0 13 74
+ 1.327261 2 1 ack 40 ------- 0 3.1 1.0 13 74
- 1.327261 2 1 ack 40 ------- 0 3.1 1.0 13 74
r 1.327633 2 0 ack 40 ------- 0 3.0 0.0 14 68
+ 1.327633 0 2 tcp 1040 ------- 0 0.0 3.0 29 87
r 1.328334 1 2 tcp 1040 ------- 0 1.0 3.1 22 76
+ 1.328334 2 3 tcp 1040 ------- 0 1.0 3.1 22 76
d 1.328334 2 3 tcp 1040 ------- 0 1.0 3.1 22 76
- 1.329591 0 2 tcp 1040 ------- 0 0.0 3.0 29 87
- 1.33112 2 3 tcp 1040 ------- 0 1.0 3.1 17 66
r 1.331271 0 2 tcp 1040 ------- 0 0.0 3.0 26 79
+ 1.331271 2 3 tcp 1040 ------- 0 0.0 3.0 26 79
r 1.331544 2 3 tcp 1040 ------- 0 0.0 3.0 18 55
+ 1.331544 3 2 ack 40 ------- 0 3.0 0.0 18 88
- 1.331544 3 2 ack 40 ------- 0 3.0 0.0 18 88
r 1.332155 3 2 ack 40 ------- 0 3.1 1.0 14 77
+ 1.332155 2 1 ack 40 ------- 0 3.1 1.0 14 77
- 1.332155 2 1 ack 40 ------- 0 3.1 1.0 14 77
r 1.332527 2 1 ack 40 ------- 0 3.1 1.0 12 71
+ 1.332527 1 2 tcp 1040 ------- 0 1.0 3.1 25 89
- 1.332527 1 2 tcp 1040 ------- 0 1.0 3.1 25 89
+ 1.332527 1 2 tcp 1040 ------- 0 1.0 3.1 26 90
r 1.335431 0 2 tcp 1040 ------- 0 0.0 3.0 27 81
+ 1.335431 2 3 tcp 1040 ------- 0 0.0 3.0 27 81
d 1.335431 2 3 tcp 1040 ------- 0 0.0 3.0 27 81
- 1.336014 2 3 tcp 1040 ------- 0 0.0 3.0 21 63
r 1.336438 2 3 tcp 1040 ------- 0 1.0 3.1 15 60
+ 1.336438 3 2 ack 40 ------- 0 3.1 1.0 15 91
- 1.336438 3 2 ack 40 ------- 0 3.1 1.0 15 91
- 1.336687 1 2 tcp 1040 ------- 0 1.0 3.1 26 90
r 1.336899 1 2 tcp 1040 ------- 0 1.0 3.1 23 84
+ 1.336899 2 3 tcp 1040 ------- 0 1.0 3.1 23 84
r 1.337049 3 2 ack 40 ------- 0 3.0 0.0 15 80
+ 1.337049 2 0 ack 40 ------- 0 3.0 0.0 15 80
- 1.337049 2 0 ack 40 ------- 0 3.0 0.0 15 80
r 1.337421 2 1 ack 40 ------- 0 3.1 1.0 13 74
+ 1.337421 1 2 tcp 1040 ------- 0 1.0 3.1 27 92
+ 1.337421 1 2 tcp 1040 ------- 0 1.0 3.1 28 93
r 1.339591 0 2 tcp 1040 ------- 0 0.0 3.0 28 82
+ 1.339591 2 3 tcp 1040 ------- 0 0.0 3.0 28 82
d 1.339591 2 3 tcp 1040 ------- 0 0.0 3.0 28 82
- 1.340847 1 2 tcp 1040 ------- 0 1.0 3.1 27 92
- 1.340908 2 3 tcp 1040 ------- 0 1.0 3.1 18 67
r 1.341059 1 2 tcp 1040 ------- 0 1.0 3.1 24 85
+ 1.341059 2 3 tcp 1040 ------- 0 1.0 3.1 24 85
r 1.341332 2 3 tcp 1040 ------- 0 0.0 3.0 19 57
+ 1.341332 3 2 ack 40 ------- 0 3.0 0.0 19 94
- 1.341332 3 2 ack 40 ------- 0 3.0 0.0 19 94
r 1.341944 3 2 ack 40 ------- 0 3.0 0.0 16 83
+ 1.341944 2 0 ack 40 ------- 0 3.0 0.0 16 83
- 1.341944 2 0 ack 40 ------- 0 3.0 0.0 16 83
r 1.342315 2 1 ack 40 ------- 0 3.1 1.0 14 77
+ 1.342315 1 2 tcp 1040 ------- 0 1.0 3.1 29 95
r 1.343751 0 2 tcp 1040 ------- 0 0.0 3.0 29 87
+ 1.343751 2 3 tcp 1040 ------- 0 0.0 3.0 29 87
d 1.343751 2 3 tcp 1040 ------- 0 0.0 3.0 29 87
- 1.345007 1 2 tcp 1040 ------- 0 1.0 3.1 28 93
- 1.345802 2 3 tcp 1040 ------- 0 0.0 3.0 22 64
r 1.346226 2 3 tcp 1040 ------- 0 1.0 3.1 16 61
+ 1.346226 3 2 ack 40 ------- 0 3.1 1.0 16 96
- 1.346226 3 2 ack 40 ------- 0 3.1 1.0 16 96
r 1.346687 1 2 tcp 1040 ------- 0 1.0 3.1 25 89
+ 1.346687 2 3 tcp 1040 ------- 0 1.0 3.1 25 89
r 1.346838 3 2 ack 40 ------- 0 3.0 0.0 17 86
+ 1.346838 2 0 ack 40 ------- 0 3.0 0.0 17 86
- 1.346838 2 0 ack 40 ------- 0 3.0 0.0 17 86
r 1.347209 2 0 ack 40 ------- 0 3.0 0.0 15 80
+ 1.347209 0 2 tcp 1040 ------- 0 0.0 3.0 30 97
- 1.347209 0 2 tcp 1040 ------- 0 0.0 3.0 30 97
- 1.349167 1 2 tcp 1040 ------- 0 1.0 3.1 29 95
- 1.350696 2 3 tcp 1040 ------- 0 1.0 3.1 19 69
r 1.350847 1 2 tcp 1040 ------- 0 1.0 3.1 26 90
+ 1.350847 2 3 tcp 1040 ------- 0 1.0 3.1 26 90
r 1.35112 2 3 tcp 1040 ------- 0 0.0 3.0 20 58
+ 1.35112 3 2 ack 40 ------- 0 3.0 0.0 20 98
- 1.35112 3 2 ack 40 ------- 0 3.0 0.0 20 98
r 1.351732 3 2 ack 40 ------- 0 3.0 0.0 18 88
+ 1.351732 2 0 ack 40 ------- 0 3.0 0.0 18 88
- 1.351732 2 0 ack 40 ------- 0 3.0 0.0 18 88
r 1.352104 2 0 ack 40 ------- 0 3.0 0.0 16 83
+ 1.352104 0 2 tcp 1040 ------- 0 0.0 3.0 31 99
- 1.352104 0 2 tcp 1040 ------- 0 0.0 3.0 31 99
r 1.355007 1 2 tcp 1040 ------- 0 1.0 3.1 27 92
+ 1.355007 2 3 tcp 1040 ------- 0 1.0 3.1 27 92
d 1.355007 2 3 tcp 1040 ------- 0 1.0 3.1 27 92
- 1.355591 2 3 tcp 1040 ------- 0 0.0 3.0 23 72
r 1.356014 2 3 tcp 1040 ------- 0 1.0 3.1 17 66
+ 1.356014 3 2 ack 40 ------- 0 3.1 1.0 17 100
- 1.356014 3 2 ack 40 ------- 0 3.1 1.0 17 100
r 1.356626 3 2 ack 40 ------- 0 3.1 1.0 15 91
+ 1.356626 2 1 ack 40 ------- 0 3.1 1.0 15 91
- 1.356626 2 1 ack 40 ------- 0 3.1 1.0 15 91
r 1.356998 2 0 ack 40 ------- 0 3.0 0.0 17 86
+ 1.356998 0 2 tcp 1040 ------- 0 0.0 3.0 32 101
- 1.356998 0 2 tcp 1040 ------- 0 0.0 3.0 32 101
r 1.359167 1 2 tcp 1040 ------- 0 1.0 3.1 28 93
+ 1.359167 2 3 tcp 1040 ------- 0 1.0 3.1 28 93
- 1.360485 2 3 tcp 1040 ------- 0 1.0 3.1 20 70
r 1.360908 2 3 tcp 1040 ------- 0 0.0 3.0 21 63
+ 1.360908 3 2 ack 40 ------- 0 3.0 0.0 21 102
- 1.360908 3 2 ack 40 ------- 0 3.0 0.0 21 102
r 1.361369 0 2 tcp 1040 ------- 0 0.0 3.0 30 97
+ 1.361369 2 3 tcp 1040 ------- 0 0.0 3.0 30 97
r 1.36152 3 2 ack 40 ------- 0 3.0 0.0 19 94
+ 1.36152 2 0 ack 40 ------- 0 3.0 0.0 19 94
- 1.36152 2 0 ack 40 ------- 0 3.0 0.0 19 94
r 1.361892 2 0 ack 40 ------- 0 3.0 0.0 18 88
+ 1.361892 0 2 tcp 1040 ------- 0 0.0 3.0 33 103
- 1.361892 0 2 tcp 1040 ------- 0 0.0 3.0 33 103
r 1.363327 1 2 tcp 1040 ------- 0 1.0 3.1 29 95
+ 1.363327 2 3 tcp 1040 ------- 0 1.0 3.1 29 95
d 1.363327 2 3 tcp 1040 ------- 0 1.0 3.1 29 95
- 1.365379 2 3 tcp 1040 ------- 0 0.0 3.0 24 73
r 1.365802 2 3 tcp 1040 ------- 0 1.0 3.1 18 67
+ 1.365802 3 2 ack 40 ------- 0 3.1 1.0 18 104
- 1.365802 3 2 ack 40 ------- 0 3.1 1.0 18 104
r 1.366264 0 2 tcp 1040 ------- 0 0.0 3.0 31 99
+ 1.366264 2 3 tcp 1040 ------- 0 0.0 3.0 31 99
r 1.366414 3 2 ack 40 ------- 0 3.1 1.0 16 96
+ 1.366414 2 1 ack 40 ------- 0 3.1 1.0 16 96
- 1.366414 2 1 ack 40 ------- 0 3.1 1.0 16 96
r 1.366786 2 1 ack 40 ------- 0 3.1 1.0 15 91
+ 1.366786 1 2 tcp 1040 ------- 0 1.0 3.1 30 105
- 1.366786 1 2 tcp 1040 ------- 0 1.0 3.1 30 105
- 1.370273 2 3 tcp 1040 ------- 0 0.0 3.0 25 78
r 1.370696 2 3 tcp 1040 ------- 0 0.0 3.0 22 64
+ 1.370696 3 2 ack 40 ------- 0 3.0 0.0 22 106
- 1.370696 3 2 ack 40 ------- 0 3.0 0.0 22 106
r 1.371158 0 2 tcp 1040 ------- 0 0.0 3.0 32 101
+ 1.371158 2 3 tcp 1040 ------- 0 0.0 3.0 32 101
r 1.371308 3 2 ack 40 ------- 0 3.0 0.0 20 98
+ 1.371308 2 0 ack 40 ------- 0 3.0 0.0 20 98
- 1.371308 2 0 ack 40 ------- 0 3.0 0.0 20 98
r 1.37168 2 0 ack 40 ------- 0 3.0 0.0 19 94
+ 1.37168 0 2 tcp 1040 ------- 0 0.0 3.0 34 107
- 1.37168 0 2 tcp 1040 ------- 0 0.0 3.0 34 107
- 1.375167 2 3 tcp 1040 ------- 0 0.0 3.0 26 79
r 1.375591 2 3 tcp 1040 ------- 0 1.0 3.1 19 69
+ 1.375591 3 2 ack 40 ------- 0 3.1 1.0 19 108
- 1.375591 3 2 ack 40 ------- 0 3.1 1.0 19 108
r 1.376052 0 2 tcp 1040 ------- 0 0.0 3.0 33 103
+ 1.376052 2 3 tcp 1040 ------- 0 0.0 3.0 33 103
r 1.376202 3 2 ack 40 ------- 0 3.1 1.0 17 100
+ 1.376202 2 1 ack 40 ------- 0 3.1 1.0 17 100
- 1.376202 2 1 ack 40 ------- 0 3.1 1.0 17 100
r 1.376574 2 1 ack 40 ------- 0 3.1 1.0 16 96
+ 1.376574 1 2 tcp 1040 ------- 0 1.0 3.1 31 109
- 1.376574 1 2 tcp 1040 ------- 0 1.0 3.1 31 109
- 1.380061 2 3 tcp 1040 ------- 0 1.0 3.1 23 84
r 1.380485 2 3 tcp 1040 ------- 0 0.0 3.0 23 72
+ 1.380485 3 2 ack 40 ------- 0 3.0 0.0 23 110
- 1.380485 3 2 ack 40 ------- 0 3.0 0.0 23 110
r 1.380946 1 2 tcp 1040 ------- 0 1.0 3.1 30 105
+ 1.380946 2 3 tcp 1040 ------- 0 1.0 3.1 30 105
r 1.381096 3 2 ack 40 ------- 0 3.0 0.0 21 102
+ 1.381096 2 0 ack 40 ------- 0 3.0 0.0 21 102
- 1.381096 2 0 ack 40 ------- 0 3.0 0.0 21 102
r 1.381468 2 0 ack 40 ------- 0 3.0 0.0 20 98
+ 1.381468 0 2 tcp 1040 ------- 0 0.0 3.0 35 111
- 1.381468 0 2 tcp 1040 ------- 0 0.0 3.0 35 111
- 1.384955 2 3 tcp 1040 ------- 0 1.0 3.1 24 85
r 1.385379 2 3 tcp 1040 ------- 0 1.0 3.1 20 70
+ 1.385379 3 2 ack 40 ------- 0 3.1 1.0 20 112
- 1.385379 3 2 ack 40 ------- 0 3.1 1.0 20 112
r 1.38584 0 2 tcp 1040 ------- 0 0.0 3.0 34 107
+ 1.38584 2 3 tcp 1040 ------- 0 0.0 3.0 34 107
r 1.385991 3 2 ack 40 ------- 0 3.1 1.0 18 104
+ 1.385991 2 1 ack 40 ------- 0 3.1 1.0 18 104
- 1.385991 2 1 ack 40 ------- 0 3.1 1.0 18 104
r 1.386362 2 1 ack 40 ------- 0 3.1 1.0 17 100
+ 1.386362 1 2 tcp 1040 ------- 0 1.0 3.1 32 113
- 1.386362 1 2 tcp 1040 ------- 0 1.0 3.1 32 113
- 1.389849 2 3 tcp 1040 ------- 0 1.0 3.1 25 89
r 1.390273 2 3 tcp 1040 ------- 0 0.0 3.0 24 73
+ 1.390273 3 2 ack 40 ------- 0 3.0 0.0 24 114
- 1.390273 3 2 ack 40 ------- 0 3.0 0.0 24 114
r 1.390734 1 2 tcp 1040 ------- 0 1.0 3.1 31 109
+ 1.390734 2 3 tcp 1040 ------- 0 1.0 3.1 31 109
r 1.390885 3 2 ack 40 ------- 0 3.0 0.0 22 106
+ 1.390885 2 0 ack 40 ------- 0 3.0 0.0 22 106
- 1.390885 2 0 ack 40 ------- 0 3.0 0.0 22 106
r 1.391256 2 0 ack 40 ------- 0 3.0 0.0 21 102
+ 1.391256 0 2 tcp 1040 ------- 0 0.0 3.0 36 115
- 1.391256 0 2 tcp 1040 ------- 0 0.0 3.0 36 115
- 1.394744 2 3 tcp 1040 ------- 0 1.0 3.1 26 90
r 1.395167 2 3 tcp 1040 ------- 0 0.0 3.0 25 78
+ 1.395167 3 2 ack 40 ------- 0 3.0 0.0 25 116
- 1.395167 3 2 ack 40 ------- 0 3.0 0.0 25 116
r 1.395628 0 2 tcp 1040 ------- 0 0.0 3.0 35 111
+ 1.395628 2 3 tcp 1040 ------- 0 0.0 3.0 35 111